18
cycloh_opt.out	Energy: -147926.1122448
C          0.48766        1.37720        0.22944
C          1.43654        0.26626       -0.22945
C         -0.94886        1.11092       -0.22946
C          0.94886       -1.11092        0.22946
C         -1.43654       -0.26626        0.22945
C         -0.48766       -1.37720       -0.22944
H          0.83181        2.34907       -0.14444
H          0.50954        1.43890        1.32711
H          1.50094        0.27817       -1.32712
H          2.45028        0.45415        0.14444
H         -0.99132        1.16067       -1.32712
H         -1.61845        1.89491        0.14439
H          0.99132       -1.16067        1.32712
H          1.61845       -1.89491       -0.14439
H         -1.50093       -0.27817        1.32712
H         -2.45028       -0.45415       -0.14444
H         -0.83181       -2.34907        0.14444
H         -0.50954       -1.43889       -1.32711
