10
pyrazine_opt.out	Energy: -165781.0803676
N          0.00001        1.40162        0.00001
N         -0.00001       -1.40162       -0.00001
C          1.12987        0.69641        0.00001
C          1.12987       -0.69642       -0.00000
C         -1.12986        0.69642        0.00000
C         -1.12987       -0.69641       -0.00002
H          2.06234        1.25462        0.00004
H          2.06233       -1.25463        0.00001
H         -2.06233        1.25463       -0.00001
H         -2.06234       -1.25462       -0.00003
